data_52562-ICSD
#©2009 by Fachinformationszentrum Karlsruhe, and the U.S. Secretary of 
#Commerce on behalf of the United States.  All rights reserved.
_database_code_ICSD                52562
_audit_creation_date               2003/04/01
_chemical_name_systematic
;
Silver Copper Indium Telluride (1.5/0.5/2/4)
;
_chemical_formula_structural       '(Ag1.5 Cu0.5) In2 Te4'
_chemical_formula_sum              'Ag1.5 Cu0.5 In2 Te4'
_publ_section_title
;
Preparation and characterization of the pseudobinary system Cu1-x Agx 
In Te2
;
loop_
_citation_id
_citation_journal_abbrev
_citation_year
_citation_journal_volume
_citation_page_first
_citation_page_last
_citation_journal_id_ASTM
primary 'Journal of Materials Science' 1986 5 912 914 JMTSAS
_publ_author_name
;
Kasiviswanathan, S.;Krishna Rao, D.;Gopalam, B.S.V.
;
_cell_length_a                     6.3879
_cell_length_b                     6.3879
_cell_length_c                     12.5969
_cell_angle_alpha                  90.
_cell_angle_beta                   90.
_cell_angle_gamma                  90.
_cell_volume                       514.02
_cell_formula_units_Z              2
_symmetry_space_group_name_H-M     'I -4 2 d'
_symmetry_Int_Tables_number        122
loop_
_symmetry_equiv_pos_site_id
_symmetry_equiv_pos_as_xyz
  1	'-y, -x+1/2, z+1/4'
  2	'y, -x, -z'
  3	'y, x+1/2, z+1/4'
  4	'-y, x, -z'
  5	'x, -y+1/2, -z+1/4'
  6	'-x, -y, z'
  7	'-x, y+1/2, -z+1/4'
  8	'x, y, z'
  9	'-y+1/2, -x, z+3/4'
 10	'y+1/2, -x+1/2, -z+1/2'
 11	'y+1/2, x, z+3/4'
 12	'-y+1/2, x+1/2, -z+1/2'
 13	'x+1/2, -y, -z+3/4'
 14	'-x+1/2, -y+1/2, z+1/2'
 15	'-x+1/2, y, -z+3/4'
 16	'x+1/2, y+1/2, z+1/2'
loop_
_atom_type_symbol
_atom_type_oxidation_number
Ag1+	1
Cu1+	1
In3+	3
Te2-	-2
loop_
_atom_site_label
_atom_site_type_symbol
_atom_site_symmetry_multiplicity
_atom_site_Wyckoff_symbol
_atom_site_fract_x
_atom_site_fract_y
_atom_site_fract_z
_atom_site_occupancy
_atom_site_attached_hydrogens
Ag1 Ag1+ 4 a 0 0 0 0.75 0 
Cu1 Cu1+ 4 a 0 0 0 0.25 0 
In1 In3+ 4 b 0 0 0.5 1. 0 
Te1 Te2- 8 d 0.2571 0.25 0.125 1. 0 

#End of data_52562-ICSD


