data_250110-ICSD
#©2009 by Fachinformationszentrum Karlsruhe, and the U.S. Secretary of 
#Commerce on behalf of the United States.  All rights reserved.
_database_code_ICSD                250110
_audit_creation_date               2004/04/01
_chemical_name_systematic
;
Silver Gallium Indium Selenide (1/0.67/0.33/2)
;
_chemical_formula_structural       'Ag (Ga0.665 In0.335) Se2'
_chemical_formula_sum              'Ag1 Ga0.665 In0.335 Se2'
_publ_section_title
;
Preparation and structure of Ag Ga1-x Inx Se2 single crystals
;
loop_
_citation_id
_citation_journal_abbrev
_citation_year
_citation_journal_volume
_citation_page_first
_citation_page_last
_citation_journal_id_ASTM
primary 'Neorganicheskie Materialy' 2003 39 1193 1199 NMATEI
_publ_author_name
;
Marenkin, S.F.;Kuz'micheva, G.M.;Panyutin, V.L.;Rybakov, 
V.B.;Chizhikov, V.I.;Shevyrdyaeva, G.S.;Shcherbakov, S.I.
;
_cell_length_a                     6.0138(11)
_cell_length_b                     6.0138(11)
_cell_length_c                     11.1238(18)
_cell_angle_alpha                  90
_cell_angle_beta                   90
_cell_angle_gamma                  90
_cell_volume                       402.3
_cell_formula_units_Z              4
_symmetry_space_group_name_H-M     'I -4 2 d'
_symmetry_Int_Tables_number        122
_refine_ls_R_factor_all            0.0396
loop_
_symmetry_equiv_pos_site_id
_symmetry_equiv_pos_as_xyz
  1	'-y, -x+1/2, z+1/4'
  2	'y, -x, -z'
  3	'y, x+1/2, z+1/4'
  4	'-y, x, -z'
  5	'x, -y+1/2, -z+1/4'
  6	'-x, -y, z'
  7	'-x, y+1/2, -z+1/4'
  8	'x, y, z'
  9	'-y+1/2, -x, z+3/4'
 10	'y+1/2, -x+1/2, -z+1/2'
 11	'y+1/2, x, z+3/4'
 12	'-y+1/2, x+1/2, -z+1/2'
 13	'x+1/2, -y, -z+3/4'
 14	'-x+1/2, -y+1/2, z+1/2'
 15	'-x+1/2, y, -z+3/4'
 16	'x+1/2, y+1/2, z+1/2'
loop_
_atom_type_symbol
_atom_type_oxidation_number
Ag1+	1
Ga3+	3
In3+	3
Se2-	-2
loop_
_atom_site_label
_atom_site_type_symbol
_atom_site_symmetry_multiplicity
_atom_site_Wyckoff_symbol
_atom_site_fract_x
_atom_site_fract_y
_atom_site_fract_z
_atom_site_occupancy
_atom_site_attached_hydrogens
Ag1 Ag1+ 4 a 0 0 0 1. 0 
In1 In3+ 4 b 0 0 0.5 0.33(2) 0 
Ga1 Ga3+ 4 b 0 0 0.5 0.67 0 
Se1 Se2- 8 d 0.2737(9) 0.75 0.125 1. 0 

loop_
_atom_site_aniso_label
_atom_site_aniso_type_symbol
_atom_site_aniso_U_11
_atom_site_aniso_U_22
_atom_site_aniso_U_33
_atom_site_aniso_U_12
_atom_site_aniso_U_13
_atom_site_aniso_U_23
Ag1 Ag1+ 0.0295(3) 0.0295(3) 0.0398(6) 0 0 0
In1 In3+ 0.0094(2) 0.0094(2) 0.0116(5) 0 0 0
Ga1 Ga3+ 0.0094(2) 0.0094(2) 0.0116(5) 0 0 0
Se1 Se2- 0.0131(3) 0.0121(3) 0.0197(4) 0 0 0.002(2)
#End of data_250110-ICSD


