data_74458-ICSD
#©2009 by Fachinformationszentrum Karlsruhe, and the U.S. Secretary of 
#Commerce on behalf of the United States.  All rights reserved.
_database_code_ICSD                74458
_audit_creation_date               1995/10/17
_chemical_name_systematic
;
Copper Gallium Indium Telluride (1/0.5/0.5/2)
;
_chemical_formula_structural       'Cu (Ga0.5 In0.5) Te2'
_chemical_formula_sum              'Cu1 Ga0.5 In0.5 Te2'
_publ_section_title
;
Comparative study of the crystal structure of synthesized CuGa1-
yInyTe2 compounds
;
loop_
_citation_id
_citation_journal_abbrev
_citation_year
_citation_journal_volume
_citation_journal_issue
_citation_page_first
_citation_page_last
_citation_journal_id_ASTM
primary 'Journal of Vacuum Science Technology A' 1993 11 5 2430 2436 JVTAD6
_publ_author_name
;
Leon, M.;Merino, J.M.;Martin de Vidales, J.L.
;
_cell_length_a                     6.1009(2)
_cell_length_b                     6.1009(2)
_cell_length_c                     12.1979(6)
_cell_angle_alpha                  90.
_cell_angle_beta                   90.
_cell_angle_gamma                  90.
_cell_volume                       454.02
_cell_formula_units_Z              4
_symmetry_space_group_name_H-M     'I -4 2 d'
_symmetry_Int_Tables_number        122
_refine_ls_R_factor_all            0.021
loop_
_symmetry_equiv_pos_site_id
_symmetry_equiv_pos_as_xyz
  1	'-y, -x+1/2, z+1/4'
  2	'y, -x, -z'
  3	'y, x+1/2, z+1/4'
  4	'-y, x, -z'
  5	'x, -y+1/2, -z+1/4'
  6	'-x, -y, z'
  7	'-x, y+1/2, -z+1/4'
  8	'x, y, z'
  9	'-y+1/2, -x, z+3/4'
 10	'y+1/2, -x+1/2, -z+1/2'
 11	'y+1/2, x, z+3/4'
 12	'-y+1/2, x+1/2, -z+1/2'
 13	'x+1/2, -y, -z+3/4'
 14	'-x+1/2, -y+1/2, z+1/2'
 15	'-x+1/2, y, -z+3/4'
 16	'x+1/2, y+1/2, z+1/2'
loop_
_atom_type_symbol
_atom_type_oxidation_number
Cu1+	1
Ga3+	3
In3+	3
Te2-	-2
loop_
_atom_site_label
_atom_site_type_symbol
_atom_site_symmetry_multiplicity
_atom_site_Wyckoff_symbol
_atom_site_fract_x
_atom_site_fract_y
_atom_site_fract_z
_atom_site_occupancy
_atom_site_attached_hydrogens
_atom_site_B_iso_or_equiv
Cu1 Cu1+ 4 a 0 0 0 1. 0 0.61(3) 
Ga1 Ga3+ 4 b 0 0 0.5 0.5 0 0.61(3) 
In1 In3+ 4 b 0 0 0.5 0.5 0 0.61(3) 
Te1 Te2- 8 d 0.2279(3) 0.25 0.125 1. 0 0.61(3) 

#End of data_74458-ICSD


