data_42127-ICSD
#©2009 by Fachinformationszentrum Karlsruhe, and the U.S. Secretary of 
#Commerce on behalf of the United States.  All rights reserved.
_database_code_ICSD                42127
_audit_creation_date               2000/07/15
_audit_update_record               2006/04/01
_chemical_name_systematic          'Copper(I) Indium Sulfide'
_chemical_formula_structural       'Cu In S2'
_chemical_formula_sum              'Cu1 In1 S2'
_chemical_name_mineral             Roquesite
_publ_section_title
;
ESR and X-ray analysis of the ternary semiconductors Co Al S3, Cu In 
S2, and AgGa S2
;
loop_
_citation_id
_citation_journal_abbrev
_citation_year
_citation_journal_volume
_citation_page_first
_citation_page_last
_citation_journal_id_ASTM
primary 'Solid State Communications' 1973 12 481 483 SSCOA4
2 'Golden Book of Phase Transitions, Wroclaw' 2002 1 1 123 GBOPT5
_publ_author_name
;
Brandt, G.;Raeuber, A.;Schneider, J.
;
_cell_length_a                     5.523
_cell_length_b                     5.523
_cell_length_c                     11.12
_cell_angle_alpha                  90.
_cell_angle_beta                   90.
_cell_angle_gamma                  90.
_cell_volume                       339.2
_cell_formula_units_Z              4
_symmetry_space_group_name_H-M     'I -4 2 d'
_symmetry_Int_Tables_number        122
loop_
_symmetry_equiv_pos_site_id
_symmetry_equiv_pos_as_xyz
  1	'-y, -x+1/2, z+1/4'
  2	'y, -x, -z'
  3	'y, x+1/2, z+1/4'
  4	'-y, x, -z'
  5	'x, -y+1/2, -z+1/4'
  6	'-x, -y, z'
  7	'-x, y+1/2, -z+1/4'
  8	'x, y, z'
  9	'-y+1/2, -x, z+3/4'
 10	'y+1/2, -x+1/2, -z+1/2'
 11	'y+1/2, x, z+3/4'
 12	'-y+1/2, x+1/2, -z+1/2'
 13	'x+1/2, -y, -z+3/4'
 14	'-x+1/2, -y+1/2, z+1/2'
 15	'-x+1/2, y, -z+3/4'
 16	'x+1/2, y+1/2, z+1/2'
loop_
_atom_type_symbol
_atom_type_oxidation_number
Cu1+	1
In3+	3
S2-	-2
loop_
_atom_site_label
_atom_site_type_symbol
_atom_site_symmetry_multiplicity
_atom_site_Wyckoff_symbol
_atom_site_fract_x
_atom_site_fract_y
_atom_site_fract_z
_atom_site_occupancy
_atom_site_attached_hydrogens
Cu1 Cu1+ 4 a 0 0 0 1. 0 
In1 In3+ 4 b 0 0 0.5 1. 0 
S1 S2- 8 d 0.214(7) 0.25 0.125 1. 0 

#End of data_42127-ICSD


