data_92043-ICSD
#©2009 by Fachinformationszentrum Karlsruhe, and the U.S. Secretary of 
#Commerce on behalf of the United States.  All rights reserved.
_database_code_ICSD                92043
_audit_creation_date               2002/10/01
_chemical_name_systematic
;
Copper(I) Indium Selenide Telluride
;
_chemical_formula_structural       'Cu In Se Te'
_chemical_formula_sum              'Cu1 In1 Se1 Te1'
_publ_section_title
;
X-ray powder diffraction study of Cu In Se Te
;
loop_
_citation_id
_citation_journal_abbrev
_citation_year
_citation_journal_volume
_citation_journal_issue
_citation_page_first
_citation_page_last
_citation_journal_id_ASTM
primary 'Powder Diffraction' 2000 15 1 65 68 PODIE2
_publ_author_name                  'Rashmi;Suri, D.K.'
_cell_length_a                     5.987(1)
_cell_length_b                     5.987(1)
_cell_length_c                     11.979(4)
_cell_angle_alpha                  90.
_cell_angle_beta                   90.
_cell_angle_gamma                  90.
_cell_volume                       429.38
_cell_formula_units_Z              4
_symmetry_space_group_name_H-M     'I -4 2 d'
_symmetry_Int_Tables_number        122
loop_
_symmetry_equiv_pos_site_id
_symmetry_equiv_pos_as_xyz
  1	'-y, -x+1/2, z+1/4'
  2	'y, -x, -z'
  3	'y, x+1/2, z+1/4'
  4	'-y, x, -z'
  5	'x, -y+1/2, -z+1/4'
  6	'-x, -y, z'
  7	'-x, y+1/2, -z+1/4'
  8	'x, y, z'
  9	'-y+1/2, -x, z+3/4'
 10	'y+1/2, -x+1/2, -z+1/2'
 11	'y+1/2, x, z+3/4'
 12	'-y+1/2, x+1/2, -z+1/2'
 13	'x+1/2, -y, -z+3/4'
 14	'-x+1/2, -y+1/2, z+1/2'
 15	'-x+1/2, y, -z+3/4'
 16	'x+1/2, y+1/2, z+1/2'
loop_
_atom_type_symbol
_atom_type_oxidation_number
Cu1+	1
In3+	3
Se2-	-2
Te2-	-2
loop_
_atom_site_label
_atom_site_type_symbol
_atom_site_symmetry_multiplicity
_atom_site_Wyckoff_symbol
_atom_site_fract_x
_atom_site_fract_y
_atom_site_fract_z
_atom_site_occupancy
_atom_site_attached_hydrogens
Cu1 Cu1+ 4 a 0 0 0 1. 0 
In1 In3+ 4 b 0 0 0.5 1. 0 
Se1 Se2- 8 d 0.2498 0.25 0.125 0.5 0 
Te1 Te2- 8 d 0.2498 0.25 0.125 0.5 0 

#End of data_92043-ICSD


