data_68323-ICSD
#©2009 by Fachinformationszentrum Karlsruhe, and the U.S. Secretary of 
#Commerce on behalf of the United States.  All rights reserved.
_database_code_ICSD                68323
_audit_creation_date               1991/07/10
_chemical_name_systematic          'Zinc Silicon Arsenide'
_chemical_formula_structural       'Zn Si As2'
_chemical_formula_sum              'As2 Si1 Zn1'
_publ_section_title
;
Etude structurale, par diffraction de R-X des liaisons dans les 
semiconducteurs ternaires ZnSiAs2,ZnGeAs2 et ZnSnAs2
;
loop_
_citation_id
_citation_journal_abbrev
_citation_year
_citation_journal_volume
_citation_page_first
_citation_page_last
_citation_journal_id_ASTM
primary 'Physica Status Solidi, Sectio A: Applied Research'
 1988 109 111 118 PSSABA
_publ_author_name                  'Levalois, M.;Allais, G.'
_cell_length_a                     5.6086(8)
_cell_length_b                     5.6086(8)
_cell_length_c                     10.8780(16)
_cell_angle_alpha                  90.
_cell_angle_beta                   90.
_cell_angle_gamma                  90.
_cell_volume                       342.18
_cell_formula_units_Z              4
_symmetry_space_group_name_H-M     'I -4 2 d'
_symmetry_Int_Tables_number        122
_refine_ls_R_factor_all            0.0076
loop_
_symmetry_equiv_pos_site_id
_symmetry_equiv_pos_as_xyz
  1	'-y, -x+1/2, z+1/4'
  2	'y, -x, -z'
  3	'y, x+1/2, z+1/4'
  4	'-y, x, -z'
  5	'x, -y+1/2, -z+1/4'
  6	'-x, -y, z'
  7	'-x, y+1/2, -z+1/4'
  8	'x, y, z'
  9	'-y+1/2, -x, z+3/4'
 10	'y+1/2, -x+1/2, -z+1/2'
 11	'y+1/2, x, z+3/4'
 12	'-y+1/2, x+1/2, -z+1/2'
 13	'x+1/2, -y, -z+3/4'
 14	'-x+1/2, -y+1/2, z+1/2'
 15	'-x+1/2, y, -z+3/4'
 16	'x+1/2, y+1/2, z+1/2'
loop_
_atom_type_symbol
_atom_type_oxidation_number
As3-	-3
Si4+	4
Zn2+	2
loop_
_atom_site_label
_atom_site_type_symbol
_atom_site_symmetry_multiplicity
_atom_site_Wyckoff_symbol
_atom_site_fract_x
_atom_site_fract_y
_atom_site_fract_z
_atom_site_occupancy
_atom_site_attached_hydrogens
Zn1 Zn2+ 4 a 0 0 0 1. 0 
Si1 Si4+ 4 b 0 0 0.5 1. 0 
As1 As3- 8 d 0.26556(7) 0.25 0.125 1. 0 

#End of data_68323-ICSD


