data_42669-ICSD
#©2009 by Fachinformationszentrum Karlsruhe, and the U.S. Secretary of 
#Commerce on behalf of the United States.  All rights reserved.
_database_code_ICSD                42669
_audit_creation_date               2002/04/01
_audit_update_record               2009/02/01
_chemical_name_systematic          'Zinc Tin(IV) Antimonide'
_chemical_formula_structural       'Zn Sn Sb2'
_chemical_formula_sum              'Sb2 Sn1 Zn1'
_publ_section_title
;
X-ray diffraction study of the semiconducting alloy Zn Sn Sb2
;
loop_
_citation_id
_citation_journal_abbrev
_citation_year
_citation_journal_volume
_citation_journal_issue
_citation_page_first
_citation_page_last
_citation_journal_id_ASTM
primary Kristallografiya 1970 15 \N 820 821 KRISAJ
2 'Soviet Physics, Crystallography (= Kristallografiya)'
 1970 15 \N 703 704 SPHCA6
3 'Fizika Tverdogo Tela (Leningrad) (= Solid State Physics)'
 1973 15 \N 1430 1435 FTVTAC
_publ_author_name
;
Vaipolin, A.A.;Kradinova, L.V.;Prochukhan, V.D.
;
_cell_length_a                     6.275
_cell_length_b                     6.275
_cell_length_c                     12.55
_cell_angle_alpha                  90.
_cell_angle_beta                   90.
_cell_angle_gamma                  90.
_cell_volume                       494.16
_cell_formula_units_Z              4
_symmetry_space_group_name_H-M     'I -4 2 d'
_symmetry_Int_Tables_number        122
loop_
_symmetry_equiv_pos_site_id
_symmetry_equiv_pos_as_xyz
  1	'-y, -x+1/2, z+1/4'
  2	'y, -x, -z'
  3	'y, x+1/2, z+1/4'
  4	'-y, x, -z'
  5	'x, -y+1/2, -z+1/4'
  6	'-x, -y, z'
  7	'-x, y+1/2, -z+1/4'
  8	'x, y, z'
  9	'-y+1/2, -x, z+3/4'
 10	'y+1/2, -x+1/2, -z+1/2'
 11	'y+1/2, x, z+3/4'
 12	'-y+1/2, x+1/2, -z+1/2'
 13	'x+1/2, -y, -z+3/4'
 14	'-x+1/2, -y+1/2, z+1/2'
 15	'-x+1/2, y, -z+3/4'
 16	'x+1/2, y+1/2, z+1/2'
loop_
_atom_type_symbol
_atom_type_oxidation_number
Sb3-	-3
Sn4+	4
Zn2+	2
loop_
_atom_site_label
_atom_site_type_symbol
_atom_site_symmetry_multiplicity
_atom_site_Wyckoff_symbol
_atom_site_fract_x
_atom_site_fract_y
_atom_site_fract_z
_atom_site_occupancy
_atom_site_attached_hydrogens
Zn1 Zn2+ 4 a 0 0 0 1. 0 
Sn1 Sn4+ 4 b 0 0 0.5 1. 0 
Sb1 Sb3- 8 d 0.228 0.25 0.125 1. 0 

#End of data_42669-ICSD


